{
  "1":  {"atomic_number":1,"symbol":"H","name":"Hydrogen","atomic_mass":1.008,"electron_config":[1],"electronegativity":2.20,"ionization_energy_eV":13.598,"electron_affinity_eV":0.754,"atomic_radius_pm":53,"covalent_radius_pm":31,"vdw_radius_pm":120,"category":"nonmetal","period":1,"group":1,"valence_electrons":1,"oxidation_states":[-1,1],"color_rgb":[255,255,255]},
  "2":  {"atomic_number":2,"symbol":"He","name":"Helium","atomic_mass":4.003,"electron_config":[2],"electronegativity":0.0,"ionization_energy_eV":24.587,"electron_affinity_eV":0.0,"atomic_radius_pm":31,"covalent_radius_pm":28,"vdw_radius_pm":140,"category":"noble_gas","period":1,"group":18,"valence_electrons":2,"oxidation_states":[0],"color_rgb":[217,255,255]},
  "3":  {"atomic_number":3,"symbol":"Li","name":"Lithium","atomic_mass":6.941,"electron_config":[2,1],"electronegativity":0.98,"ionization_energy_eV":5.392,"electron_affinity_eV":0.618,"atomic_radius_pm":167,"covalent_radius_pm":128,"vdw_radius_pm":182,"category":"alkali_metal","period":2,"group":1,"valence_electrons":1,"oxidation_states":[1],"color_rgb":[204,128,255]},
  "4":  {"atomic_number":4,"symbol":"Be","name":"Beryllium","atomic_mass":9.012,"electron_config":[2,2],"electronegativity":1.57,"ionization_energy_eV":9.323,"electron_affinity_eV":0.0,"atomic_radius_pm":112,"covalent_radius_pm":96,"vdw_radius_pm":153,"category":"alkaline_earth","period":2,"group":2,"valence_electrons":2,"oxidation_states":[2],"color_rgb":[194,255,0]},
  "5":  {"atomic_number":5,"symbol":"B","name":"Boron","atomic_mass":10.81,"electron_config":[2,3],"electronegativity":2.04,"ionization_energy_eV":8.298,"electron_affinity_eV":0.277,"atomic_radius_pm":87,"covalent_radius_pm":84,"vdw_radius_pm":192,"category":"metalloid","period":2,"group":13,"valence_electrons":3,"oxidation_states":[3],"color_rgb":[255,181,181]},
  "6":  {"atomic_number":6,"symbol":"C","name":"Carbon","atomic_mass":12.011,"electron_config":[2,4],"electronegativity":2.55,"ionization_energy_eV":11.260,"electron_affinity_eV":1.263,"atomic_radius_pm":77,"covalent_radius_pm":76,"vdw_radius_pm":170,"category":"nonmetal","period":2,"group":14,"valence_electrons":4,"oxidation_states":[-4,-3,-2,-1,1,2,3,4],"color_rgb":[144,144,144]},
  "7":  {"atomic_number":7,"symbol":"N","name":"Nitrogen","atomic_mass":14.007,"electron_config":[2,5],"electronegativity":3.04,"ionization_energy_eV":14.534,"electron_affinity_eV":-0.07,"atomic_radius_pm":75,"covalent_radius_pm":71,"vdw_radius_pm":155,"category":"nonmetal","period":2,"group":15,"valence_electrons":5,"oxidation_states":[-3,-2,-1,1,2,3,4,5],"color_rgb":[48,80,248]},
  "8":  {"atomic_number":8,"symbol":"O","name":"Oxygen","atomic_mass":15.999,"electron_config":[2,6],"electronegativity":3.44,"ionization_energy_eV":13.618,"electron_affinity_eV":1.461,"atomic_radius_pm":73,"covalent_radius_pm":66,"vdw_radius_pm":152,"category":"nonmetal","period":2,"group":16,"valence_electrons":6,"oxidation_states":[-2,-1,1,2],"color_rgb":[255,13,13]},
  "9":  {"atomic_number":9,"symbol":"F","name":"Fluorine","atomic_mass":18.998,"electron_config":[2,7],"electronegativity":3.98,"ionization_energy_eV":17.422,"electron_affinity_eV":3.401,"atomic_radius_pm":71,"covalent_radius_pm":64,"vdw_radius_pm":147,"category":"halogen","period":2,"group":17,"valence_electrons":7,"oxidation_states":[-1],"color_rgb":[144,224,80]},
  "10": {"atomic_number":10,"symbol":"Ne","name":"Neon","atomic_mass":20.180,"electron_config":[2,8],"electronegativity":0.0,"ionization_energy_eV":21.565,"electron_affinity_eV":0.0,"atomic_radius_pm":69,"covalent_radius_pm":58,"vdw_radius_pm":154,"category":"noble_gas","period":2,"group":18,"valence_electrons":8,"oxidation_states":[0],"color_rgb":[179,227,245]},
  "11": {"atomic_number":11,"symbol":"Na","name":"Sodium","atomic_mass":22.990,"electron_config":[2,8,1],"electronegativity":0.93,"ionization_energy_eV":5.139,"electron_affinity_eV":0.548,"atomic_radius_pm":190,"covalent_radius_pm":166,"vdw_radius_pm":227,"category":"alkali_metal","period":3,"group":1,"valence_electrons":1,"oxidation_states":[1],"color_rgb":[171,92,242]},
  "12": {"atomic_number":12,"symbol":"Mg","name":"Magnesium","atomic_mass":24.305,"electron_config":[2,8,2],"electronegativity":1.31,"ionization_energy_eV":7.646,"electron_affinity_eV":0.0,"atomic_radius_pm":145,"covalent_radius_pm":141,"vdw_radius_pm":173,"category":"alkaline_earth","period":3,"group":2,"valence_electrons":2,"oxidation_states":[2],"color_rgb":[138,255,0]},
  "13": {"atomic_number":13,"symbol":"Al","name":"Aluminum","atomic_mass":26.982,"electron_config":[2,8,3],"electronegativity":1.61,"ionization_energy_eV":5.986,"electron_affinity_eV":0.441,"atomic_radius_pm":118,"covalent_radius_pm":121,"vdw_radius_pm":184,"category":"post_transition_metal","period":3,"group":13,"valence_electrons":3,"oxidation_states":[3],"color_rgb":[191,166,166]},
  "14": {"atomic_number":14,"symbol":"Si","name":"Silicon","atomic_mass":28.086,"electron_config":[2,8,4],"electronegativity":1.90,"ionization_energy_eV":8.152,"electron_affinity_eV":1.385,"atomic_radius_pm":111,"covalent_radius_pm":111,"vdw_radius_pm":210,"category":"metalloid","period":3,"group":14,"valence_electrons":4,"oxidation_states":[-4,4],"color_rgb":[240,200,160]},
  "15": {"atomic_number":15,"symbol":"P","name":"Phosphorus","atomic_mass":30.974,"electron_config":[2,8,5],"electronegativity":2.19,"ionization_energy_eV":10.487,"electron_affinity_eV":0.746,"atomic_radius_pm":106,"covalent_radius_pm":107,"vdw_radius_pm":180,"category":"nonmetal","period":3,"group":15,"valence_electrons":5,"oxidation_states":[-3,3,5],"color_rgb":[255,128,0]},
  "16": {"atomic_number":16,"symbol":"S","name":"Sulfur","atomic_mass":32.065,"electron_config":[2,8,6],"electronegativity":2.58,"ionization_energy_eV":10.360,"electron_affinity_eV":2.077,"atomic_radius_pm":102,"covalent_radius_pm":105,"vdw_radius_pm":180,"category":"nonmetal","period":3,"group":16,"valence_electrons":6,"oxidation_states":[-2,2,4,6],"color_rgb":[255,255,48]},
  "17": {"atomic_number":17,"symbol":"Cl","name":"Chlorine","atomic_mass":35.453,"electron_config":[2,8,7],"electronegativity":3.16,"ionization_energy_eV":12.968,"electron_affinity_eV":3.613,"atomic_radius_pm":99,"covalent_radius_pm":102,"vdw_radius_pm":175,"category":"halogen","period":3,"group":17,"valence_electrons":7,"oxidation_states":[-1,1,3,5,7],"color_rgb":[31,240,31]},
  "18": {"atomic_number":18,"symbol":"Ar","name":"Argon","atomic_mass":39.948,"electron_config":[2,8,8],"electronegativity":0.0,"ionization_energy_eV":15.760,"electron_affinity_eV":0.0,"atomic_radius_pm":97,"covalent_radius_pm":106,"vdw_radius_pm":188,"category":"noble_gas","period":3,"group":18,"valence_electrons":8,"oxidation_states":[0],"color_rgb":[128,209,227]},
  "19": {"atomic_number":19,"symbol":"K","name":"Potassium","atomic_mass":39.098,"electron_config":[2,8,8,1],"electronegativity":0.82,"ionization_energy_eV":4.341,"electron_affinity_eV":0.501,"atomic_radius_pm":243,"covalent_radius_pm":203,"vdw_radius_pm":275,"category":"alkali_metal","period":4,"group":1,"valence_electrons":1,"oxidation_states":[1],"color_rgb":[143,64,212]},
  "20": {"atomic_number":20,"symbol":"Ca","name":"Calcium","atomic_mass":40.078,"electron_config":[2,8,8,2],"electronegativity":1.00,"ionization_energy_eV":6.113,"electron_affinity_eV":0.024,"atomic_radius_pm":194,"covalent_radius_pm":176,"vdw_radius_pm":231,"category":"alkaline_earth","period":4,"group":2,"valence_electrons":2,"oxidation_states":[2],"color_rgb":[61,255,0]},
  "21": {"atomic_number":21,"symbol":"Sc","name":"Scandium","atomic_mass":44.956,"electron_config":[2,8,9,2],"electronegativity":1.36,"ionization_energy_eV":6.561,"electron_affinity_eV":0.188,"atomic_radius_pm":184,"covalent_radius_pm":170,"vdw_radius_pm":211,"category":"transition_metal","period":4,"group":3,"valence_electrons":2,"oxidation_states":[3],"color_rgb":[230,230,230]},
  "22": {"atomic_number":22,"symbol":"Ti","name":"Titanium","atomic_mass":47.867,"electron_config":[2,8,10,2],"electronegativity":1.54,"ionization_energy_eV":6.828,"electron_affinity_eV":0.084,"atomic_radius_pm":176,"covalent_radius_pm":160,"vdw_radius_pm":187,"category":"transition_metal","period":4,"group":4,"valence_electrons":2,"oxidation_states":[2,3,4],"color_rgb":[191,194,199]},
  "23": {"atomic_number":23,"symbol":"V","name":"Vanadium","atomic_mass":50.942,"electron_config":[2,8,11,2],"electronegativity":1.63,"ionization_energy_eV":6.746,"electron_affinity_eV":0.525,"atomic_radius_pm":171,"covalent_radius_pm":153,"vdw_radius_pm":179,"category":"transition_metal","period":4,"group":5,"valence_electrons":2,"oxidation_states":[2,3,4,5],"color_rgb":[166,166,171]},
  "24": {"atomic_number":24,"symbol":"Cr","name":"Chromium","atomic_mass":51.996,"electron_config":[2,8,13,1],"electronegativity":1.66,"ionization_energy_eV":6.767,"electron_affinity_eV":0.666,"atomic_radius_pm":166,"covalent_radius_pm":139,"vdw_radius_pm":189,"category":"transition_metal","period":4,"group":6,"valence_electrons":1,"oxidation_states":[2,3,6],"color_rgb":[138,153,199]},
  "25": {"atomic_number":25,"symbol":"Mn","name":"Manganese","atomic_mass":54.938,"electron_config":[2,8,13,2],"electronegativity":1.55,"ionization_energy_eV":7.434,"electron_affinity_eV":0.0,"atomic_radius_pm":161,"covalent_radius_pm":139,"vdw_radius_pm":197,"category":"transition_metal","period":4,"group":7,"valence_electrons":2,"oxidation_states":[2,3,4,7],"color_rgb":[156,122,199]},
  "26": {"atomic_number":26,"symbol":"Fe","name":"Iron","atomic_mass":55.845,"electron_config":[2,8,14,2],"electronegativity":1.83,"ionization_energy_eV":7.902,"electron_affinity_eV":0.151,"atomic_radius_pm":156,"covalent_radius_pm":132,"vdw_radius_pm":194,"category":"transition_metal","period":4,"group":8,"valence_electrons":2,"oxidation_states":[2,3],"color_rgb":[224,102,51]},
  "27": {"atomic_number":27,"symbol":"Co","name":"Cobalt","atomic_mass":58.933,"electron_config":[2,8,15,2],"electronegativity":1.88,"ionization_energy_eV":7.881,"electron_affinity_eV":0.662,"atomic_radius_pm":152,"covalent_radius_pm":126,"vdw_radius_pm":192,"category":"transition_metal","period":4,"group":9,"valence_electrons":2,"oxidation_states":[2,3],"color_rgb":[240,144,160]},
  "28": {"atomic_number":28,"symbol":"Ni","name":"Nickel","atomic_mass":58.693,"electron_config":[2,8,16,2],"electronegativity":1.91,"ionization_energy_eV":7.640,"electron_affinity_eV":1.156,"atomic_radius_pm":149,"covalent_radius_pm":124,"vdw_radius_pm":163,"category":"transition_metal","period":4,"group":10,"valence_electrons":2,"oxidation_states":[2,3],"color_rgb":[80,208,80]},
  "29": {"atomic_number":29,"symbol":"Cu","name":"Copper","atomic_mass":63.546,"electron_config":[2,8,18,1],"electronegativity":1.90,"ionization_energy_eV":7.726,"electron_affinity_eV":1.235,"atomic_radius_pm":145,"covalent_radius_pm":132,"vdw_radius_pm":140,"category":"transition_metal","period":4,"group":11,"valence_electrons":1,"oxidation_states":[1,2],"color_rgb":[200,128,51]},
  "30": {"atomic_number":30,"symbol":"Zn","name":"Zinc","atomic_mass":65.380,"electron_config":[2,8,18,2],"electronegativity":1.65,"ionization_energy_eV":9.394,"electron_affinity_eV":0.0,"atomic_radius_pm":142,"covalent_radius_pm":122,"vdw_radius_pm":139,"category":"transition_metal","period":4,"group":12,"valence_electrons":2,"oxidation_states":[2],"color_rgb":[125,128,176]},
  "31": {"atomic_number":31,"symbol":"Ga","name":"Gallium","atomic_mass":69.723,"electron_config":[2,8,18,3],"electronegativity":1.81,"ionization_energy_eV":5.999,"electron_affinity_eV":0.300,"atomic_radius_pm":136,"covalent_radius_pm":122,"vdw_radius_pm":187,"category":"post_transition_metal","period":4,"group":13,"valence_electrons":3,"oxidation_states":[3],"color_rgb":[194,143,143]},
  "32": {"atomic_number":32,"symbol":"Ge","name":"Germanium","atomic_mass":72.640,"electron_config":[2,8,18,4],"electronegativity":2.01,"ionization_energy_eV":7.900,"electron_affinity_eV":1.233,"atomic_radius_pm":125,"covalent_radius_pm":120,"vdw_radius_pm":211,"category":"metalloid","period":4,"group":14,"valence_electrons":4,"oxidation_states":[4],"color_rgb":[102,143,143]},
  "33": {"atomic_number":33,"symbol":"As","name":"Arsenic","atomic_mass":74.922,"electron_config":[2,8,18,5],"electronegativity":2.18,"ionization_energy_eV":9.789,"electron_affinity_eV":0.814,"atomic_radius_pm":114,"covalent_radius_pm":119,"vdw_radius_pm":185,"category":"metalloid","period":4,"group":15,"valence_electrons":5,"oxidation_states":[-3,3,5],"color_rgb":[189,128,227]},
  "34": {"atomic_number":34,"symbol":"Se","name":"Selenium","atomic_mass":78.960,"electron_config":[2,8,18,6],"electronegativity":2.55,"ionization_energy_eV":9.752,"electron_affinity_eV":2.021,"atomic_radius_pm":103,"covalent_radius_pm":120,"vdw_radius_pm":190,"category":"nonmetal","period":4,"group":16,"valence_electrons":6,"oxidation_states":[-2,4,6],"color_rgb":[255,161,0]},
  "35": {"atomic_number":35,"symbol":"Br","name":"Bromine","atomic_mass":79.904,"electron_config":[2,8,18,7],"electronegativity":2.96,"ionization_energy_eV":11.814,"electron_affinity_eV":3.364,"atomic_radius_pm":94,"covalent_radius_pm":120,"vdw_radius_pm":185,"category":"halogen","period":4,"group":17,"valence_electrons":7,"oxidation_states":[-1,1,3,5],"color_rgb":[166,41,41]},
  "36": {"atomic_number":36,"symbol":"Kr","name":"Krypton","atomic_mass":83.798,"electron_config":[2,8,18,8],"electronegativity":3.00,"ionization_energy_eV":14.000,"electron_affinity_eV":0.0,"atomic_radius_pm":88,"covalent_radius_pm":116,"vdw_radius_pm":202,"category":"noble_gas","period":4,"group":18,"valence_electrons":8,"oxidation_states":[0,2],"color_rgb":[92,184,209]},
  "37": {"atomic_number":37,"symbol":"Rb","name":"Rubidium","atomic_mass":85.468,"electron_config":[2,8,18,8,1],"electronegativity":0.82,"ionization_energy_eV":4.177,"electron_affinity_eV":0.486,"atomic_radius_pm":265,"covalent_radius_pm":220,"vdw_radius_pm":303,"category":"alkali_metal","period":5,"group":1,"valence_electrons":1,"oxidation_states":[1],"color_rgb":[112,46,176]},
  "38": {"atomic_number":38,"symbol":"Sr","name":"Strontium","atomic_mass":87.620,"electron_config":[2,8,18,8,2],"electronegativity":0.95,"ionization_energy_eV":5.695,"electron_affinity_eV":0.052,"atomic_radius_pm":219,"covalent_radius_pm":195,"vdw_radius_pm":249,"category":"alkaline_earth","period":5,"group":2,"valence_electrons":2,"oxidation_states":[2],"color_rgb":[0,255,0]},
  "39": {"atomic_number":39,"symbol":"Y","name":"Yttrium","atomic_mass":88.906,"electron_config":[2,8,18,9,2],"electronegativity":1.22,"ionization_energy_eV":6.217,"electron_affinity_eV":0.307,"atomic_radius_pm":212,"covalent_radius_pm":190,"vdw_radius_pm":219,"category":"transition_metal","period":5,"group":3,"valence_electrons":2,"oxidation_states":[3],"color_rgb":[148,255,255]},
  "40": {"atomic_number":40,"symbol":"Zr","name":"Zirconium","atomic_mass":91.224,"electron_config":[2,8,18,10,2],"electronegativity":1.33,"ionization_energy_eV":6.634,"electron_affinity_eV":0.426,"atomic_radius_pm":206,"covalent_radius_pm":175,"vdw_radius_pm":186,"category":"transition_metal","period":5,"group":4,"valence_electrons":2,"oxidation_states":[4],"color_rgb":[148,224,224]},
  "47": {"atomic_number":47,"symbol":"Ag","name":"Silver","atomic_mass":107.868,"electron_config":[2,8,18,18,1],"electronegativity":1.93,"ionization_energy_eV":7.576,"electron_affinity_eV":1.302,"atomic_radius_pm":165,"covalent_radius_pm":145,"vdw_radius_pm":172,"category":"transition_metal","period":5,"group":11,"valence_electrons":1,"oxidation_states":[1],"color_rgb":[192,192,192]},
  "53": {"atomic_number":53,"symbol":"I","name":"Iodine","atomic_mass":126.904,"electron_config":[2,8,18,18,7],"electronegativity":2.66,"ionization_energy_eV":10.451,"electron_affinity_eV":3.059,"atomic_radius_pm":115,"covalent_radius_pm":139,"vdw_radius_pm":198,"category":"halogen","period":5,"group":17,"valence_electrons":7,"oxidation_states":[-1,1,3,5,7],"color_rgb":[148,0,148]},
  "54": {"atomic_number":54,"symbol":"Xe","name":"Xenon","atomic_mass":131.293,"electron_config":[2,8,18,18,8],"electronegativity":2.60,"ionization_energy_eV":12.130,"electron_affinity_eV":0.0,"atomic_radius_pm":108,"covalent_radius_pm":140,"vdw_radius_pm":216,"category":"noble_gas","period":5,"group":18,"valence_electrons":8,"oxidation_states":[0,2,4,6],"color_rgb":[66,158,176]},
  "55": {"atomic_number":55,"symbol":"Cs","name":"Cesium","atomic_mass":132.905,"electron_config":[2,8,18,18,8,1],"electronegativity":0.79,"ionization_energy_eV":3.894,"electron_affinity_eV":0.472,"atomic_radius_pm":298,"covalent_radius_pm":244,"vdw_radius_pm":343,"category":"alkali_metal","period":6,"group":1,"valence_electrons":1,"oxidation_states":[1],"color_rgb":[87,23,143]},
  "56": {"atomic_number":56,"symbol":"Ba","name":"Barium","atomic_mass":137.327,"electron_config":[2,8,18,18,8,2],"electronegativity":0.89,"ionization_energy_eV":5.212,"electron_affinity_eV":0.145,"atomic_radius_pm":253,"covalent_radius_pm":215,"vdw_radius_pm":268,"category":"alkaline_earth","period":6,"group":2,"valence_electrons":2,"oxidation_states":[2],"color_rgb":[0,201,0]},
  "57": {"atomic_number":57,"symbol":"La","name":"Lanthanum","atomic_mass":138.905,"electron_config":[2,8,18,18,9,2],"electronegativity":1.10,"ionization_energy_eV":5.577,"electron_affinity_eV":0.470,"atomic_radius_pm":274,"covalent_radius_pm":207,"vdw_radius_pm":null,"category":"lanthanide","period":6,"group":3,"valence_electrons":3,"oxidation_states":[3],"color_rgb":[112,212,255]},
  "72": {"atomic_number":72,"symbol":"Hf","name":"Hafnium","atomic_mass":178.49,"electron_config":[2,8,18,32,10,2],"electronegativity":1.30,"ionization_energy_eV":6.825,"electron_affinity_eV":0.0,"atomic_radius_pm":208,"covalent_radius_pm":175,"vdw_radius_pm":186,"category":"transition_metal","period":6,"group":4,"valence_electrons":2,"oxidation_states":[4],"color_rgb":[77,194,255]},
  "79": {"atomic_number":79,"symbol":"Au","name":"Gold","atomic_mass":196.967,"electron_config":[2,8,18,32,18,1],"electronegativity":2.54,"ionization_energy_eV":9.226,"electron_affinity_eV":2.309,"atomic_radius_pm":174,"covalent_radius_pm":136,"vdw_radius_pm":166,"category":"transition_metal","period":6,"group":11,"valence_electrons":1,"oxidation_states":[1,3],"color_rgb":[255,209,35]},
  "82": {"atomic_number":82,"symbol":"Pb","name":"Lead","atomic_mass":207.200,"electron_config":[2,8,18,32,18,4],"electronegativity":2.33,"ionization_energy_eV":7.417,"electron_affinity_eV":0.364,"atomic_radius_pm":154,"covalent_radius_pm":146,"vdw_radius_pm":202,"category":"post_transition_metal","period":6,"group":14,"valence_electrons":4,"oxidation_states":[2,4],"color_rgb":[87,89,97]},
  "86": {"atomic_number":86,"symbol":"Rn","name":"Radon","atomic_mass":222.000,"electron_config":[2,8,18,32,18,8],"electronegativity":0.0,"ionization_energy_eV":10.749,"electron_affinity_eV":0.0,"atomic_radius_pm":120,"covalent_radius_pm":150,"vdw_radius_pm":220,"category":"noble_gas","period":6,"group":18,"valence_electrons":8,"oxidation_states":[0,2],"color_rgb":[66,130,150]},
  "89": {"atomic_number":89,"symbol":"Ac","name":"Actinium","atomic_mass":227.0,"electron_config":[2,8,18,32,18,9,2],"electronegativity":1.10,"ionization_energy_eV":5.170,"electron_affinity_eV":0.0,"atomic_radius_pm":260,"covalent_radius_pm":215,"vdw_radius_pm":null,"category":"actinide","period":7,"group":3,"valence_electrons":3,"oxidation_states":[3],"color_rgb":[112,171,250]},
  "92": {"atomic_number":92,"symbol":"U","name":"Uranium","atomic_mass":238.029,"electron_config":[2,8,18,32,21,9,2],"electronegativity":1.38,"ionization_energy_eV":6.194,"electron_affinity_eV":0.0,"atomic_radius_pm":175,"covalent_radius_pm":196,"vdw_radius_pm":186,"category":"actinide","period":7,"group":3,"valence_electrons":2,"oxidation_states":[3,4,5,6],"color_rgb":[0,143,0]},
  "104": {"atomic_number":104,"symbol":"Rf","name":"Rutherfordium","atomic_mass":267.0,"electron_config":[2,8,18,32,32,10,2],"electronegativity":null,"ionization_energy_eV":null,"electron_affinity_eV":null,"atomic_radius_pm":null,"covalent_radius_pm":null,"vdw_radius_pm":null,"category":"transition_metal","period":7,"group":4,"valence_electrons":2,"oxidation_states":[4],"color_rgb":[204,204,204]},
  "118": {"atomic_number":118,"symbol":"Og","name":"Oganesson","atomic_mass":294.0,"electron_config":[2,8,18,32,32,18,8],"electronegativity":null,"ionization_energy_eV":null,"electron_affinity_eV":null,"atomic_radius_pm":null,"covalent_radius_pm":null,"vdw_radius_pm":null,"category":"noble_gas","period":7,"group":18,"valence_electrons":8,"oxidation_states":[0],"color_rgb":[235,235,235]}
}
